% Model:              NotchShell.mph        
% Version:            COMSOL 6.2.0.290      
% Date:               Jun 25 2025, 22:18    
% Dimension:          3                     
% Nodes:              778                   
% Elements:           2725                  
% Expressions:        0                     
% Description:                              
% Length unit:        cm                    
% Coordinates
4.315123399383363        3.317495679301742        0.04934285633443172      
4.324166739623623        3.274936027966909        0                        
4.26542880017746         3.357414004156185        0                        
4.359154624640405        3.35376798072746         0                        
4.419055720726391        3.274438287225694        0                        
4.799917568901658        2.567312729000236        0.04608770778797401      
4.760904035836475        2.603274622722797        0                        
4.84474802523275         2.60353707138576         0                        
4.806290109873609        2.516981387512602        0                        
4.891009066228925        2.515552645365158        0                        
5.094872357954605        1.698769387349606        0.04886001279895304      
5.093470063762629        1.652695386483966        0                        
5.059872265463605        1.741637161349083        0                        
5.14853105995519         1.717494584414228        0                        
5.115490098535518        1.810054666880609        0                        
5.126913196000982        1.776016941244309        0.04979151271255702      
5.027603579873999        1.834195725251533        0                        
5.202430755661478        1.784567974860779        0                        
5.186767738262908        1.829601166734181        0.06531242793860415      
5.169328924040329        1.878299598514714        0                        
5.186097710268795        1.636235480684884        0                        
5.213545720138532        1.751839325972906        0.08596712787197425      
5.233834115549552        1.690253734527714        0                        
5.008626626177306        2.089890553915136        0                        
4.97422001355817         2.072120812971831        0.06929933458635021      
4.917379253187741        2.115916216572484        0                        
4.95328856414856         2.020524074521732        0                        
4.968827025692597        2.18140909501825         0                        
5.044149469284925        1.996375881278216        0                        
4.86251966083568         2.043999259340793        0                        
4.821075161058487        2.096084275194613        0.05244919634941338      
4.825920569696849        2.141156259280337        0                        
4.731025984618888        2.158097602988563        0                        
4.771866236022579        2.066226663632937        0                        
4.883621897183205        1.786116361723743        0                        
4.868481624979568        1.826988414642059        0.07072559779070065      
4.938282265519495        1.857982611230405        0                        
4.848177450823417        1.880200854583707        0                        
5.005283641655289        1.672835253192591        0                        
4.972228432755974        1.763660443212939        0                        
4.896381873387793        1.750841097861095        0.08501033941207214      
4.917241694149439        1.691364528884384        0                        
4.991955862344463        1.927676363328301        0                        
4.971910389174652        1.973948054105564        0.08253860976335517      
4.900586938447525        1.951159129006274        0                        
4.925567759525907        1.892260083580412        0.0896000583582435       
4.989383682292732        1.825603429823082        0.06533192749616337      
4.953952344604188        1.815590510375266        0.1256311943962108       
5.105295332046766        1.83453929807439         0.0995830254251157       
5.081868154481215        1.904014631393727        0                        
5.008111748852784        1.879150804778835        0.10874221704191         
5.065059712994096        1.94129047516304         0.08682057909149335      
5.134539320185429        1.971417956445568        0                        
5.158209036813544        1.908632896220512        0.09110254841963539      
5.080448693506384        2.10690319489275         0.0662145880415993       
5.059939637737519        2.155692280804479        0                        
5.098072643596103        2.063892399609389        0                        
5.117066470075684        2.016340928718946        0.09651340963436339      
4.926902196782422        2.27040796147484         0                        
4.887858975261914        2.266043105933985        0.06995973582623718      
4.835461167573922        2.292685249048683        0                        
4.875319138913252        2.206512964119826        0                        
4.891576839606691        2.36097079234546         0                        
4.745878042504829        2.334373624425784        0                        
4.774381069079912        2.23143299560941         0                        
4.8193054773116          2.323565102758853        0.0767265796288891       
4.823046939792484        2.373141895756699        0                        
4.721582219504952        2.513760571593315        0                        
4.685437327926856        2.4198324907504          0                        
4.74429355748807         2.387138723609713        0.07672657962889132      
4.64405553618427         2.339385104915556        0                        
4.766566318493899        2.430124816712111        0                        
4.688416783186231        2.249161602772824        0                        
4.670561275669214        2.286013423018152        0.07717514540828141      
4.709371217016959        2.204954135652761        0.09759778995371615      
3.678315715731824        3.992495179508995        0                        
3.668116920480951        4.022255176044315        0.04826642665596072      
3.591073511111216        4.050073012742428        0                        
3.61158742437488         3.9480619502928          0                        
3.685287119640263        4.082724100645159        0                        
3.758471337640383        4.01545287962477         0                        
3.487001641856401        4.045356639605526        0                        
3.515412988980374        3.954159490984106        0                        
3.576708935800072        4.070175649491143        0.07611597740341261      
3.538281912199481        4.114765930661096        0                        
3.610899431516386        4.148662057163219        0                        
3.700573544288159        3.943783782252393        0.04826642665595961      
3.674487213773           3.897739441025182        0                        
3.750200367254679        3.925781313061314        0                        
3.894455314545961        3.780451971142674        0                        
3.885141299713191        3.68311289020241         0                        
3.963876910985764        3.70699105833587         0                        
3.867416709975894        3.749941834745258        0.05068302876231447      
3.809847725144869        3.755417530377524        0                        
3.797891012827407        3.657588338866234        0                        
3.818739750630039        3.851405396134134        0                        
3.581680913664634        3.86959234018083         0                        
3.558417004347567        3.917001151661164        0.07166485285465377      
3.493995017341462        3.851230798984006        0                        
3.458458756746062        3.96281376301097         0.04825643780737522      
3.41888446995797         3.918063439027541        0                        
3.434650576961533        3.995339228007662        0                        
3.457588187997652        4.092511300803064        0.05231241216990536      
3.40677433133866         4.060035548530583        0                        
3.471053092307313        4.136639992842481        0                        
4.232006082240756        3.316666645499633        0.06485318834126844      
4.230446820847687        3.273597448123771        0                        
4.169659298527902        3.35921728588298         0                        
4.136539505883969        3.273505013796347        0                        
4.373221878419644        3.240497871101593        0.04761042866277711      
4.386417542594639        3.195116191636984        0                        
4.293455859111271        3.19401306146037         0                        
4.430598015151117        3.162964810892374        0.04587800099112528      
4.444779235537078        3.112987706068838        0                        
4.352964495784343        3.111720109818048        0                        
4.477512132202762        3.194038089705778        0                        
4.6771183817183          2.602419624288419        0                        
4.693357432006132        2.648247013693477        0.06575978959846632      
4.713168912734624        2.690233650363857        0                        
4.796904166691972        2.690670915460933        0                        
4.626105914938201        2.689174232275051        0                        
4.342670063070744        2.992852563135433        0.06519123841184529      
4.3198349142211          3.028793070697038        0                        
4.409711902699075        3.029332057797545        0                        
4.375745790211035        2.94501860744373         0                        
4.285930486205146        2.944618772552273        0                        
4.466879914914944        2.945759569333709        0                        
4.442548503556728        2.981261031455416        0.07537176299069695      
4.501844629614203        3.03093902597549         0                        
4.55650862103425         2.946673948502425        0                        
4.432141029865955        2.861321232403482        0                        
4.660904852975446        2.7403439131085          0.07031564704453766      
4.662739818513235        2.77659427774763         0                        
4.747492078918534        2.776925129188764        0                        
4.575573900009893        2.775004230835122        0                        
4.521221486664711        2.861054816349204        0                        
4.494853811658926        2.90157460435226         0.07402612113017074      
4.583063021938948        2.902442885682426        0.06985787241174438      
4.610968601684138        2.862125098604829        0                        
4.644031086286989        2.94668369820109         0                        
4.696528506529779        2.862271809534871        0                        
4.718825346626339        2.825364993772808        0.09742274071417867      
4.671272232218971        2.903311167012589        0.06568962369331799      
4.634527253696673        2.81729771843536         0.1089301832881362       
4.639145514093508        2.510617580146238        0                        
4.655941178019679        2.557898240245844        0.0781446217527865       
4.589353900159969        2.601185865353848        0                        
4.550144523311102        2.517176383995785        0                        
4.597959148072672        2.428734551346597        0                        
4.624858477510467        2.377116754179223        0.1178313112060619       
4.574387640084796        2.472848098496843        0.08277669568061585      
4.593568087667174        2.66623506760599         0.07608537144147501      
4.540017743070546        2.689649988922621        0                        
4.500628566359221        2.604677044792953        0                        
4.525773492976522        2.560737059963614        0.1108636715704575       
4.541590411529123        2.753433757102317        0.07608537144147889      
4.485398547883874        2.775583244346502        0                        
4.449428857605307        2.691203257331791        0                        
4.458332622539357        2.818959773694072        0.07499785076105051      
4.396565491229758        2.776723200028692        0                        
4.470388651333588        2.65624270465405         0.1091274819222138       
4.421811433419787        2.736344943035883        0.07596958039193191      
4.142408841367504        3.448328319769519        0.05522080818467836      
4.201511091563022        3.434957890858472        0                        
4.095580057378098        3.433596692169671        0                        
4.136060954966954        3.510144493507885        0                        
4.235100717616269        3.509115282970069        0                        
4.217538217598424        3.397346866866979        0.06485318834126733      
4.297829371203832        3.432001965843678        0                        
4.621799702970265        2.981437154397854        0.09917292375648368      
4.590017457566998        3.030133542745957        0                        
4.534505259746643        3.112594090728007        0                        
4.562559887071747        3.0713266314223          0.09150040484107891      
4.170989421077316        3.585082972502357        0                        
4.20176167877913         3.548971512247343        0.06705489446619417      
4.091229227010193        3.327323411317459        0.07958163498505147      
4.070294641678181        3.349350828634603        0                        
4.045611174835306        3.26695731075532         0                        
4.431498163867794        3.064875099822981        0.07537176299069639      
4.51321322830281         3.143390900901848        0.07265781902035695      
4.284899453992838        3.076229707716824        0.0651912384118464       
4.260204572055221        3.111772896606516        0                        
4.228200197851778        3.026931650706749        0                        
4.271092174126317        3.281223377876021        0.09868571266885899      
4.327388036112894        3.206557454977494        0.09522085732555532      
4.453346971486441        3.227646317605531        0.1185620765021439       
4.388315029363494        3.315522764672636        0.08145394239810311      
4.329005155791528        3.392596993621609        0.1078739559881986       
4.260592404460796        3.478124834311007        0.1005708486537094       
4.150571960174882        3.378794533660942        0.1104416163693534       
4.233565343633821        3.35973584287549         0.129706376682533        
4.173329544114392        3.255368197569677        0.08915440371352171      
4.19850168737065         3.193123927242933        0                        
4.108018063985216        3.188131069629237        0                        
4.075566914102468        3.22951301726333         0.07962309475818941      
4.035128560522105        3.525025715922228        0                        
4.083306591171984        3.461698748680568        0.1104416163693545       
4.00723912048242         3.428831921032801        0                        
4.04981810992131         3.382295431123735        0.108715888917792        
3.981692452918478        3.344562707236414        0                        
4.016329628670631        3.302892113566902        0.1069901614662283       
3.983131407570602        3.460202646718336        0.08871386916306293      
3.937230684980263        3.509979936953742        0                        
3.916286066134775        3.420918487255804        0                        
3.945467508841645        3.387223957265729        0.0995091913651508       
3.882956223969217        3.458706544756107        0.06698612195677578      
3.849416182384243        3.495995878996772        0                        
3.914521563905339        3.65128381988296         0.09141605279900714      
3.952988457141719        3.599831168469672        0                        
3.865190850565784        3.583294583704211        0                        
3.907086769487052        3.556920791139295        0.07326950674648172      
3.65684709961477         3.803816555922384        0                        
3.739882007803212        3.828065437283932        0                        
3.683061611204527        3.829576927285925        0.0788390419578994       
3.498033043534154        4.0075640869944          0.09651287561474933      
3.342495570370005        3.983431104218686        0                        
3.383531105639869        3.948634859944314        0.09375674944313295      
3.837416933410619        3.630724992095538        0.07326950674648394      
3.781106969566923        3.569766110642606        0                        
3.821274820443794        3.526734856300124        0.1000289160075979       
3.711383188633213        3.642200839917379        0                        
3.746039019640326        3.606548441839115        0.08193485642442655      
3.682682370379226        3.67121921967322         0.06347505954204191      
3.640271712442273        3.713273718411092        0                        
3.726822798949213        3.731448029040099        0                        
3.567799876757293        3.782958965105911        0                        
3.613950029257142        3.738898926961293        0.1060266083632805       
3.538192074908133        3.810668818076071        0.08075722526800444      
3.463769179174303        3.878440804421562        0.1204091497121629       
4.030706223999734        3.630545937208579        0                        
4.036056739695515        3.579895653433209        0.07733044710318551      
4.097110827288473        3.582262414048512        0                        
4.105516238786574        3.659880074836262        0                        
4.113063788498361        3.539649686661281        0.1042099936348118       
4.142820985824737        3.617600624641995        0.09797837090026906      
3.991626194400059        3.671842647670382        0.1095625988515298       
4.03870192794364         3.73348163036751         0                        
4.076197612441319        3.692507687781801        0.09675518068863798      
4.008249736697564        3.766156402522858        0.06446430349668852      
3.970567370826033        3.805862749795374        0                        
4.733561742371092        2.701743332225266        0.09900293970106115      
4.820212906889567        2.648687888796118        0.07470168122073739      
4.775102936452057        2.729174224245669        0.1048169348649491       
4.755087112570561        2.531088386614711        0.0921754155759458       
4.766849923958763        2.621563086975406        0.1022715076707126       
4.814986300399851        2.199893861730963        0.1067228506146034       
4.933998521995689        2.211106953447136        0.1012654419484349       
5.020152575434794        2.246787455118788        0                        
4.991876334690995        2.123610287408421        0.121655189440344        
5.043939268442963        2.192869502788315        0.104711709707983        
4.805499927485973        2.440247984179659        0.08349342343154545      
4.853516034614794        2.43328430581439         0                        
4.865200460616133        2.565116854652158        0.1064640093123592       
4.978725612181449        2.337148679282871        0                        
4.997712957896984        2.296272020137985        0.09763249119803585      
4.916087025252609        2.466189035768133        0.1017085323519856       
4.935673018828992        2.426746795347928        0                        
4.957775988252595        2.381272191561898        0.06496204749938894      
5.052381627279994        1.760445699928265        0.1080635024305993       
4.968797764670907        1.715442644073041        0.09136518250498774      
5.039138554998996        1.582746471596856        0                        
5.030045684628037        1.599642680641703        0.08737654876521786      
4.949023935197269        1.59598064524876         0                        
4.978955713801842        1.499999999999999        0                        
5.133047811335397        1.568059451608196        0                        
5.041213655954015        1.680044190284984        0.09772002559790831      
5.154963397633812        1.697484717413959        0.09492794421963605      
5.105103743010693        1.627377563106597        0.1080635024306021       
5.186015360729455        1.60575573006433         0.09919332189806566      
5.212629975282013        1.560476365313537        0                        
5.263528304205228        1.595387526559471        0                        
5.187398535984704        1.827811923821418        0.146619236179269        
5.051703400881671        1.522603057905765        0.07141598510401528      
5.083138016577622        1.499999999999999        0                        
5.083043354640871        1.445022613131932        0.0549773868680678       
5.187320319353401        1.499999999999999        0                        
5.135020561613107        1.531233174031289        0.1030224095643939       
5.235415058744728        1.50973995482016         0.07748856437363563      
5.291502622129181        1.499999999999999        0                        
5.203903139041234        1.435346012618257        0.06465398738174255      
5.23910263474572         1.673858889691859        0.09309595722074793      
5.218656231852322        1.736556113043554        0.1612365675801347       
5.26692697844822         1.584133897022065        0.09032314136553476      
5.287558777598655        1.513843510221393        0.1425965536998625       
5.314822053545977        1.415156399892361        0.08484360010763885      
5.028439935507358        2.035346000373732        0.1175560394035347       
4.870284086094395        2.125941886756285        0.1048983926988307       
4.882844318057885        1.994407662479227        0.08285990363347431      
4.810921261594923        1.973582718281148        0                        
4.93981340093903         2.054351072028523        0.1385986691727037       
4.7527878776098          2.109741071896107        0.1187199011807899       
4.793778246941115        2.014867270852889        0.08318119750359121      
4.905373629706466        1.937411349822056        0.1621984844034158       
4.833233587931672        1.918294316440815        0.1137763280968868       
4.874576941735572        1.810662762388369        0.16284733350373         
4.90338351551814         1.731135494334561        0.1732476545904965       
4.931861687943216        1.64825370953561         0.1101330961867192       
4.96474595382815         1.546382104768096        0.1333791901996761       
5.003685238970929        1.415321616653801        0.08467838334619855      
4.990532214200744        1.9273720336894          0.1650772195267059       
4.933252820347601        1.854025739322485        0.1928439949337485       
5.036576562458507        1.813157920081577        0.1947193051651653       
5.147830840469818        1.936449750937992        0.2163781109565227       
5.085848554936939        2.093834873204154        0.1940161408418112       
4.759688514705307        2.27384583670564         0.1085473085303768       
4.882451389497007        2.363933643080632        0.1208140020022281       
4.848815753741404        2.261678250393127        0.139919471652471        
4.714165101431774        2.362952303000992        0.1393518333000915       
4.803149787049279        2.354444956469028        0.1534531592577826       
4.665935730220976        2.460029880520888        0.1248817712718531       
4.751882622052374        2.447836540280229        0.1683793635984205       
4.676580623867595        2.273674046222583        0.1918997862606775       
4.730148502243512        2.160022024592218        0.2230954294203719       
4.82318891900105         2.135967556940086        0.2097967853976646       
3.65094672132164         3.961786251443476        0.09653285331192366      
3.924985694806923        3.744466139112993        0.1013660575246289       
3.942601236744127        3.834826656841699        0.1067644864083023       
3.901135043240485        3.876999892175304        0                        
3.754192467201335        3.916183939532451        0.1139377925231555       
3.830428505509529        3.946870706126628        0                        
3.865087423482234        3.912939970002029        0.09982295938567698      
3.799108811608392        3.977030580415428        0.07019750113050782      
3.72735073074928         4.04436107809167         0.1088802770859171       
3.507805234196761        4.126003865124786        0.09118850259115466      
3.535331853275967        4.213244437154379        0                        
3.562344360488924        4.090278286239859        0.1522319548068291       
3.644035622889914        4.119587889475029        0.1114381583841517       
3.57522320987851         4.179447212197566        0.08967765524789117      
3.356690773995644        4.101995130795134        0                        
3.422434838677132        4.187492036254009        0                        
3.392145465859411        4.236126822034028        0.05231241216990758      
3.292888762776625        4.227296744225656        0                        
3.44519836234526         4.287259306375865        0                        
3.764007936712161        3.853371347391804        0.07883904195789884      
3.695979246586752        3.763278259161344        0.1105765717289187       
3.752913485865809        3.759347894769434        0.05528828586445935      
3.762202011647754        3.696997547688175        0.1008714355473045       
3.853404538199257        3.817857922852582        0.1190453854691243       
3.841721652916285        3.722775875703132        0.1382678115525705       
3.601421019714758        3.87984281233822         0.1433297057093114       
3.576009820205369        3.979245434850653        0.1768018537793776       
3.405852919889387        4.04415041097246         0.09919078689147269      
3.493334985417771        4.248130256907881        0.1255828535644249       
3.43149440518344         4.143174057639818        0.09458939308421124      
3.480653098087934        4.06096868300469         0.193025751229502        
3.339092569373563        4.184994337692192        0.1046248243398152       
3.254063695228347        4.055989939698295        0                        
3.305309555585282        4.014340386882585        0.1251687318736427       
4.251526141403403        3.184886800687147        0.08692980896836791      
4.168888952468165        3.108112755674879        0                        
4.133753978958061        3.154691433634738        0.1119933903105907       
4.383683898099472        3.131891532078967        0.09175600198225167      
4.2009715796624          3.064610544077144        0.1100214276659867       
4.309594335930453        3.040686518827134        0.1303824768236906       
4.257475655100606        2.98561568964019         0.07560032592263288      
4.522827708402903        2.857389639370811        0.1480522422603393       
4.312178179003969        2.906048752605849        0.1083226619705163       
4.342059142380421        2.861205497047553        0                        
4.37302276372734         2.813658100751138        0.1011797429803885       
4.669188055344856        2.605041072869617        0.173465107026703        
4.604207464853884        2.728020694724254        0.1623101280855144       
4.63139460554988         2.364356996666002        0.2516092949996884       
4.395619927962923        2.915210297164132        0.1259616344808923       
4.520008397584388        2.999099823987487        0.1249582248689363       
4.418217092198508        3.016762493577121        0.1507435259813917       
4.747312493083093        2.777233172244851        0.2150155286730288       
4.522497955884681        2.925555923893932        0.1981448731995134       
4.672632653078469        2.901121177990481        0.1949247415402838       
4.643565868920047        2.803599939149246        0.2545309661004603       
4.570381088077863        2.480245292252404        0.2187097905022239       
4.491038381281869        2.621178028645351        0.218822094688586        
4.521794435249671        2.714234337650582        0.2339904859054976       
4.524987514184974        2.852012023800377        0.2713315215300905       
4.419309045235456        2.740384564746357        0.1872288867880523       
4.196038513141326        3.438248307874958        0.160727040696207        
4.52425600539304         3.127476234548396        0.1931643899922675       
4.592845627418148        3.025850135533152        0.2152159192525271       
4.200804233788807        3.550104757522241        0.1828889343741169       
4.09457415360211         3.324486433491301        0.1665622024934649       
4.414403300414601        3.152062954339882        0.1835120039645          
4.218017608629008        3.287510727785136        0.1973714253377202       
4.304550595436158        3.176649674131366        0.1738596179367319       
4.463819030036383        3.213147937317087        0.2571028395724934       
4.380553750163811        3.325770413291599        0.2185911025062837       
4.289479586418849        3.442435893040855        0.2198234315024733       
4.131484621821858        3.398371781438907        0.2208832327387084       
4.073755664509536        3.231797454339686        0.2078849235708574       
3.975002652102556        3.577528892817911        0.1546608942063727       
4.098910540426101        3.552665687344192        0.2461053613934356       