% Model:              NotchShell.mph        
% Version:            COMSOL 6.2.0.290      
% Date:               Jun 25 2025, 22:57    
% Dimension:          3                     
% Nodes:              520                   
% Elements:           1744                  
% Expressions:        0                     
% Description:                              
% Length unit:        cm                    
% Coordinates
3.186243809299006        2.338176873481269        0.06019674399442899      
3.13787427727392         2.340833788104054        0                        
3.177194074106296        2.430109782195537        0                        
3.235568297934461        2.351826994298643        0                        
3.194132243809835        2.263315466004773        0                        
3.089248075012816        2.315927366319313        0.05243596114994587      
3.104848760623404        2.260682277303915        0                        
3.046042165406653        2.339450027344031        0                        
3.013929788859745        2.26249887132532         0                        
3.342261682896985        1.821362241343341        0.04053199123839724      
3.331034820329736        1.763242920442408        0                        
3.365423188973156        1.855105502828349        0                        
3.411531499861082        1.77171744887591         0                        
3.453991144556562        1.855776306981403        0                        
3.425839664172516        1.828245577351905        0.06590185576907383      
3.406325375807773        1.942310901120093        0                        
3.503625732990345        1.76894342403859         0                        
3.466850295164928        1.648880505080557        0                        
3.387480924019914        1.677161084875601        0                        
3.421414013224088        1.583251446813453        0                        
3.424098380866066        1.676499544979142        0.07915312278331867      
3.461181612658224        1.710472819489949        0                        
3.472578752430024        1.567106304628203        0.09240438979756462      
3.512138398200589        1.59445048410456         0                        
3.555631154822244        1.572160267480593        0.09240438979756684      
3.545203074302693        1.5                      0                        
3.587518818008527        1.593359372518236        0                        
3.626651158925263        1.5                      0                        
3.620859939834276        1.513792471872756        0.07931923075369664      
3.670377323850608        1.590071079738844        0                        
3.572159013066646        1.45702198345586         0.04297801654413957      
3.427442828743789        1.533553152314099        0.04620219489878175      
3.516527632160872        1.455184249560664        0.04481575043933622      
3.463754989680122        1.499999999999999        0                        
3.382306905057553        1.499999999999999        0                        
3.642587033549258        1.430475982961667        0.06952401703833294      
3.708099243547832        1.499999999999999        0                        
3.156751920099818        2.258236593200648        0.04777147514140601      
3.067790193155035        2.223131354469868        0.06343399393776929      
3.072839944403648        2.182339882144513        0                        
2.986091873417624        2.184777159086887        0                        
3.159767015155555        2.181036204627016        0                        
3.250193135147408        2.184409959353141        0                        
3.108460358203878        2.133669531690106        0.05687113153834967      
3.128777264910761        2.102307690528561        0                        
3.043520752253349        2.104039255914818        0                        
3.071427187517133        2.063088711563463        0.06997482572335068      
3.09876653220677         2.021792135996797        0                        
3.353488545464236        1.879481562244272        0.08106398247679671      
3.287308215801214        1.851054412711738        0                        
3.251022194685521        1.766593854057067        0                        
3.321490224960736        1.938695989500064        0                        
3.144080772004104        2.084999181235697        0.1137422630766982       
3.183015499872266        2.020524070356671        0                        
3.12182077608707         1.986009829278577        0.1000207954394416       
3.151790276820282        1.938095246586406        0                        
3.424537378884614        2.067013241520745        0.0659902081503988       
3.449452464039077        2.025159282635576        0                        
3.356883736133999        2.022461019776186        0                        
3.398988803242609        2.108760501690502        0                        
3.497861020167403        1.94035152012517         0                        
3.469997990680138        1.989752231981613        0.09740865447028291      
3.202554603783118        1.853009000095943        0                        
3.235122328396063        1.936932791551752        0                        
3.223689060104824        1.815992523046412        0.0610512154817594       
3.178926734606576        1.893257725721349        0.08958730126094105      
3.392584553904194        1.738937966299005        0.06590185576907272      
3.297158032917816        1.678911643457555        0                        
3.303866249399891        1.821134967837045        0.127945760546111        
3.266178596844463        1.738412314013892        0.09376355613863185      
3.349218819044658        1.963159320718191        0.08106398247679671      
3.267147361481003        2.020496391043158        0                        
3.19987492818167         2.063716860632303        0.07875485021501928      
3.214646070015875        2.101246866678479        0                        
3.237171551722844        1.974666870649484        0.09290670522272783      
3.23346374581924         2.145659805130534        0.07875485021501984      
3.305413117556077        2.105151635557253        0                        
3.346499499450457        2.191104995242775        0                        
3.295416368839114        2.056076015577625        0.09622610918451625      
3.376735082524691        2.144215516790925        0.09725035522137493      
3.292014844375419        2.272143041815477        0                        
3.31924248026616         2.232180404267664        0.08581786102300537      
3.269261066292468        2.304762911976899        0.06851871807456         
2.997976065406497        2.311583230562473        0.05582277621838939      
2.952361575793214        2.341189424368132        0                        
2.987270269817326        2.417418424373663        0                        
2.926522174848387        2.263948734286889        0                        
2.893691353806307        2.568356107484248        0                        
2.962455413538641        2.575629065337266        0                        
2.908144503780127        2.63814360966839         0                        
2.920084973669182        2.583021322349037        0.08223637420203379      
2.928757752020744        2.493031200516569        0                        
2.990853553671479        2.656084983994485        0                        
2.982955571657418        2.525547714273729        0.05702023608402441      
3.019834602026557        2.49327115748398         0                        
3.054800231384067        2.582284121547133        0                        
2.878881664577477        2.505498998123565        0.06393986891497173      
2.826539865935044        2.508354211920468        0                        
2.889719257415081        2.419475902700177        0                        
3.116926386869634        2.506944335009418        0                        
3.147089761467545        2.468972667581833        0.08172122459147169      
3.079002692391867        2.417969106111264        0                        
3.20865507957623         2.255790909097385        0.09554295028281036      
3.211098199420687        2.385130678532568        0.1139189881021729       
3.070676488117652        2.377206239314513        0.08464150897841306      
3.136919320663554        2.324526752663896        0.1203934879888558       
3.055795531718254        2.262547828780731        0.1083741870758848       
3.019519241081666        2.138341308757234        0.09996923391130119      
2.955425882255677        2.226085769797123        0.09479866636158796      
2.987446686050313        2.310130525255883        0.130868004965028        
2.898468406214776        2.299756704126499        0.06496715334845138      
2.86485436863833         2.341497214672965        0                        
2.636746584720686        2.795982349401144        0                        
2.604423998437273        2.723760871488929        0                        
2.631642663099821        2.755248703960912        0.05659834930967667      
2.545282077339333        2.80742650490711         0                        
2.691697181821539        2.747221676169989        0                        
2.678610248496699        2.654073206774648        0                        
2.705877764416814        2.837383434719488        0                        
3.035352606481496        2.481074644135586        0.09487885916990903      
3.089379786955401        2.540813360314252        0.1101063282663345       
2.821670959983567        2.611828154292929        0                        
2.745964324792955        2.579712701901253        0                        
2.821366409835443        2.562166196592602        0.08722051802635301      
2.735400255695873        2.49150167068751         0                        
2.788563934943825        2.62025256254391         0.04361025901317706      
2.755761460052205        2.678338928495213        0                        
2.839369273279122        2.703423890308978        0                        
2.856222587728638        2.637955492310302        0.08198340885241574      
2.925124994004013        2.728303411923172        0                        
3.019666966421982        2.623282564250346        0.09973135009490541      
2.959348930437764        2.691143605963245        0.0687166380681975       
2.526633623553729        2.70298315438694         0                        
2.556273181800917        2.674970545633244        0.09962277695837685      
2.598102525418972        2.63436186256589         0                        
2.453353405050636        2.769666711190667        0                        
2.489123421655403        2.737565449768553        0.07235532419482826      
2.470086165207357        2.844329443208102        0                        
2.715825256583136        2.696757955789539        0.1019888434665095       
2.772304287468641        2.770792664449058        0                        
2.806443096725117        2.727421936623638        0.1031872012439417       
2.857653192653814        2.798895894904894        0                        
2.897060936867102        2.75808591745774         0.1043855590213683       
2.788477514770856        2.86781953540943         0                        
2.728238549675797        2.841377565939918        0.08988469075798756      
2.818969216145826        2.837853512502396        0.1027503449940348       
2.753243220401266        2.90166362097926         0.06751153359969564      
2.717640030907803        2.935034085682435        0                        
2.512021564681504        2.861051107466751        0.07502949289842521      
2.519159669437653        2.898980852003398        0                        
2.44259291680885         2.910968883852116        0                        
2.620962899310737        2.900817225019757        0                        
2.506871677777504        2.987573328164015        0                        
2.532645970880957        2.933965068568114        0.07420705770980308      
2.57027406944611         2.965782759311717        0                        
2.385979124725331        2.958371227120927        0                        
2.474941441015885        3.007024433801357        0.07230307173817786      
2.428191929162392        3.03559960337369         0                        
2.496640971350534        3.049557748289808        0                        
2.571150438746157        3.064177772475912        0                        
2.610360751292097        3.030844230262215        0.1069807946798829       
2.645183439440843        3.000500009959426        0                        
3.544185009955129        1.854387396206457        0                        
3.523329689873276        1.893712728070835        0.08947200376934805      
3.56430438718147         1.815415719750968        0.06345025924786918      
3.588395778417838        1.767317593272821        0                        
3.534070633634543        1.658893564948709        0.1016413211024109       
3.540868871562803        1.681215143868547        0                        
3.63046802592847         1.679194549306701        0                        
3.602235253639993        1.738936795123162        0.09615825344292062      
3.432300809057182        1.901005197200456        0.1207123717473557       
3.360916543022338        1.887729199838904        0.1750957437724443       
3.512510112446842        1.745626862416825        0.1108782524072549       
3.397688183788476        1.800714847722404        0.1318037115381493       
3.472646043835765        1.822834685541388        0.1245163109930936       
3.311520144401486        1.650404293869584        0.1073519469360207       
3.340930178328909        1.590025837740517        0                        
3.348841257204609        1.573296613497994        0.0971540488320477       
3.643485491511894        1.650761482814017        0.1015391189967485       
3.678043544067138        1.57225814927004         0.0934883378281226       
3.499215154330905        1.48685370428966         0.1133253194759992       
3.380071423440647        1.505030621761537        0.1362301284262207       
3.432927124865591        1.675165201799289        0.1623112880820876       
3.420393630576435        1.590434313422108        0.1472681869964299       
3.530879656186352        1.559228881030269        0.1793554471974263       
3.615068720743291        1.527584943745511        0.1586384615073966       
3.706393949850617        1.50420872504807         0.1324681434196578       
3.583060711934585        1.445894806203138        0.1719901648159084       
3.541654903903928        1.399049847741829        0.1009501522581707       
3.417957288379433        1.416887734211222        0.08311226578877808      
3.642377932233202        1.340828449963317        0.1591715500366825       
3.740811967359261        1.416449145400072        0.08355085459992777      
3.127606028850841        2.190354055670661        0.1362525904995893       
3.216734356491071        2.106909650907933        0.1575097004300419       
3.07122904974918         2.063383658939062        0.1826948699554981       
3.260240318280944        1.898557673690771        0.1258576331072636       
3.146151238106158        1.947237116265784        0.2014091183370387       
3.424688002138149        2.066763674930207        0.183495318401013        
3.493973002027906        1.947345028776386        0.1951507409690939       
3.220274466599558        1.822040712982816        0.1934072397829489       
3.325113822601679        1.78418245279964         0.2285073314296221       
3.28006329814124         1.712070314031176        0.1813594582223355       
3.285419620122152        2.007000395597993        0.1924522183690275       
3.331059728294948        1.919959056171672        0.2658249916878331       
3.2491772205334          2.19702047950593         0.1696612042830015       
3.347271035833053        2.189926166032345        0.2059504367161907       
3.281620084575732        2.287131308103924        0.1818127081359661       
2.946478593532063        2.597686537213824        0.1644727484040659       
2.915766702846446        2.409915729535688        0.1076828142223274       
2.931634124165663        2.505171967634162        0.1282867775635299       
2.851372027066506        2.440238664415813        0.08105002383733574      
2.801131617726542        2.417366153994042        0                        
2.840808755185555        2.370612919997926        0.1044867075901523       
2.720207118445576        2.617046357492339        0.1361748791881162       
2.667707974067512        2.563851109121904        0                        
2.828608156350246        2.512894143981389        0.1619495051099518       
2.774326159514922        2.448083814053592        0.09854053385952466      
2.636113565214006        2.596325340032466        0.1083829406714026       
2.7045707976079          2.524935009208468        0.06748434239491397      
3.143700921312715        2.4732861778083          0.2195979137687587       
3.006977554954867        2.421449225657387        0.1638921713530078       
3.191249425096571        2.152955535131834        0.2451343649821126       
3.174956085494157        2.30575355633105         0.1957782763678706       
3.218598353232633        2.374999924330144        0.2481015790047236       
3.06730322841273         2.299585318049121        0.2142127703275221       
2.992883251512449        2.175465431308039        0.1998897754308027       
2.903977908282305        2.292795740620678        0.2001793253455775       
2.684714598859921        2.965182544577722        0.1012698531422929       
2.63750788320577         2.844901619377442        0.07701903652193977      
2.571588144378101        2.76327573175184         0.1131966986193545       
2.654052867100804        2.788986013735126        0.1540380730438784       
3.057243034625776        2.579392375586191        0.210882305146784        
2.804300671677147        2.637767374952216        0.1639668177048293       
2.96237387417668         2.687813429089796        0.2036115010910056       
2.39106784456897         2.888709792005617        0.0489239561707211       
2.378314155840196        2.834364439540218        0                        
2.675889053114064        2.71517698308386         0.203977686933019        
2.593500376994076        2.63889291077368         0.2208204371506622       
2.437127365164815        2.882538004648481        0.1226960219423951       
2.420393669119135        2.798516479581282        0.09931214533496269      
2.488916771785971        2.737753331314292        0.1746100354668956       
2.758277729234056        2.791461055394038        0.1871349367153758       
2.862502591367305        2.793936097052949        0.2202318003868681       
2.751832552400694        2.90300148183701         0.2084533691293733       
2.339542772329089        2.866450700159122        0.09784791234144663      
2.289187458193412        2.906820913685918        0                        
2.319736372963324        2.975090241777127        0.06806792102624583      
2.554371884565925        2.890248329539031        0.1555982343627427       
2.460682914766514        2.860626100449432        0.1966427869734078       
2.4538610612105          2.966559529715683        0.1460798985498258       
2.323817188985409        3.080652223423303        0                        
2.425605900958043        3.073416187144892        0.09426180396788832      
2.479200006299735        3.13903698032091         0                        
2.350285287733237        3.043359569868336        0.1361358420524911       
2.526005105960078        3.017302894396947        0.1473801261793345       
2.528833255834935        3.099193824881445        0.109261626025301        
2.644381091910891        3.001207863634934        0.2269837721821827       
2.568179350091908        3.066668359272243        0.1943118847582098       
3.561585435948827        1.820744128766368        0.1822513467742121       
3.614803022293573        1.712658491940891        0.1771934543813519       
3.436634137066303        1.873084452775928        0.2718320729425756       
3.522425351326128        1.895394324233089        0.2879711640731347       
3.43120850587019         1.750044543490261        0.2601434881260279       
3.337481005881464        1.597254060999831        0.2392436820794502       
3.667415559831273        1.596891703124375        0.2333874307640466       
3.404310801291877        1.449368127222157        0.2348978963791903       
3.508913169961296        1.583421584411278        0.3324636724648695       
3.58092361356341         1.430014351295428        0.2985343519340051       
3.72821653160228         1.449276196412357        0.2343421090598996       
3.465091022099969        1.297361563984629        0.2026384360153708       
3.644668685662084        1.245550479911596        0.2544495200884045       
3.784093347325514        1.296394955169567        0.2036050448304336       
3.035227814360089        2.115984904231332        0.2843182932480326       
3.10619676472515         2.010358589608084        0.3088067644627346       
3.177331922997287        1.89593297642674         0.2974976291603909       
3.385764978265212        2.129928522733279        0.3058801228089403       
3.4578305470736          2.010822694253446        0.3189619996302551       
3.259768341411344        1.75040291371225         0.3761903390387811       
3.325270909171316        1.945439956168379        0.4161358953218181       
3.223880685202858        2.102119857353957        0.4167405215187048       
3.294491309499097        2.26855174321304         0.368952821306896        
2.955684361020475        2.461143742303043        0.2521603129730466       
3.104466861256292        2.522357133191393        0.3195619026068069       
2.866658457524609        2.569150561824723        0.2915921382687026       
2.812821625376266        2.403754251959967        0.2266640549502419       
2.711540406487202        2.517448832446693        0.2235480763882858       
3.041181266389495        2.353979865643853        0.3222177892422635       
3.187304391679078        2.416834854677345        0.3623650171924953       
3.114887260810393        2.261196548096259        0.3937675870502855       
2.958998650952335        2.221334505125751        0.3312415345025105       
2.877683404733421        2.325712411740081        0.3270644459622385       
2.63880946187347         2.903790868694332        0.2553422904908004       
2.706166672217674        2.738440879412722        0.3098159343234397       
2.563863116829721        2.820772100004312        0.2149761629788472       
2.649602844450994        2.582557795418565        0.3449426562115998       
3.02177650856202         2.620852291202755        0.3596362001491177       
2.922895091199646        2.730693004685993        0.3319814318612341       
2.942757488061824        2.481126194877371        0.4511865923698367       
2.379691112079497        2.939167116067423        0.1817690898936991       
2.521398598593864        2.707868000292648        0.3666623110526013       
2.367408865377375        2.843479429173457        0.2432265881499657       
2.783037991816941        2.659911561529922        0.432750015524791        
2.81883296744128         2.837988848051766        0.3988114314962166       
2.509527401567368        2.915902980231852        0.3069172402359988       
2.684163877315124        2.965681081929856        0.3612358355544804       
2.245356595022119        2.940811752083203        0.1512127852822021       
2.165219022188699        3.000299918263864        0                        
2.246709514255974        3.120159610020991        0.1261917855551564       
2.15914335090627         3.178677412861362        0                        
2.347667528253696        3.238583875527634        0                        
2.485574634769293        3.016478229239013        0.2290633556548516       
2.334275677605678        3.061641807180621        0.2523835711103096       
2.411728880828254        3.191169661014421        0.1640455445149402       
2.505807211967465        3.117840633587907        0.2170046461470782       
2.560720005266634        3.072899779463569        0.3145597319292626       
3.594130439260156        1.755627063354744        0.3629567133228762       
3.509796107836485        1.918679567154417        0.4150496979236318       
3.404841526441831        1.796899013171693        0.5077791614067585       
3.35041078009132         1.569951465698182        0.4315399141656917       
3.67824647735357         1.571783334889405        0.4569509687558665       
3.442219214110935        1.356881307265118        0.4449351730553486       
3.523112494605833        1.551842178845751        0.5872306731196532       
3.76263777804074         1.357408174154203        0.4472717002079668       
3.524771612344234        1.125161256855652        0.3748387431443482       
3.838936307000278        1.123641535364374        0.3763584646356265       
3.042470129941713        2.10555824151517         0.4251701569080768       
3.153270060906622        1.935687971494876        0.4645282217305097       
3.407555695154833        2.09489001726054         0.5174812606099383       
3.236362454788031        2.083632453903123        0.62263089112796         
3.244425633787749        1.778679933777003        0.6293697295973516       
3.250004348309969        2.331838702819363        0.5485681142195276       
3.110149613564292        2.515346771569656        0.4803507703826565       
2.775365362559361        2.446905618185088        0.42202241435702         
2.918410891100119        2.27439615518234         0.5078276461462267       
2.633906808715909        2.807997663152635        0.4705096068971683       
2.64318089243423         2.58913011837385         0.5335185991883518       
2.505390471156153        2.722685914136985        0.5402997527512282       
2.964597556069912        2.455899415897783        0.6201831067526743       
2.945604819987539        2.706180379144409        0.5629660281240489       
2.759286000270939        2.682548715419312        0.6546472863863713       
2.400048487501961        3.010718304637617        0.4415043683889375       
2.23739748256759         2.946871647187948        0.3639582335542169       
2.377136440750932        2.835352243029777        0.4507135566168186       
2.746415018837957        2.908127326012619        0.5743569027417383       
2.557762628327804        3.075361822148679        0.4864014096417923       
2.095354045520561        3.04950675092229         0.222558211940036        
1.986933338579145        3.121232854032987        0                        
2.0822584132295          3.231918390690331        0.1727122070381393       
2.002111490541278        3.278513566371382        0                        
2.155750460663896        3.369382351394462        0                        
2.162405335917719        3.185323215009282        0.3454244140762786       
2.258895697252172        3.301119541751802        0.2152333789532423       
2.423194760189234        3.182471862278038        0.3535543569384131       
3.549914711472326        1.843395112631134        0.6393679837747368       
3.367978511858096        1.531901022802102        0.7175103774834435       
3.699471545113091        1.521154261374751        0.7047369890212862       
3.493782040589258        1.21798483276926         0.7185365138143834       
3.81073633648943         1.21584891074472         0.7195142030483442       
3.594675440517274        0.8765325407765086       0.6234674592234912       
3.903181751643089        0.8747416017580094       0.6252583982419905       
3.065169214421234        2.072374890545703        0.7277805216459748       
3.378743627117943        2.141049159223087        0.804833870466316        
3.226932734029851        1.810222397951874        0.9314639642612782       
3.393461851083748        1.474590338107253        1.048727237774663        
3.13492248326971         2.484403554958428        0.7882067274575882       
2.819045498575533        2.396452060225913        0.7600154431226896       
2.06591497458326         3.069526888266765        0.4756154491993153       
2.414037770219244        2.804001006411178        0.6403265296957805       
2.572967180554341        2.658917051694213        0.7463285446486956       
2.844853113992962        2.811905183288468        0.8476143904625794       
2.424308745698288        3.181623344384246        0.5882361408061493       
2.229746796585546        2.95266476646376         0.6039696549130541       
2.584817849764924        3.052657315116887        0.7409322745646307       
1.875899439925534        3.189200729224654        0.3079727081409672       
1.728511026004341        3.271425164756694        0                        
2.012456479234184        3.456879939944162        0.3055700540759071       
1.873330041382541        3.534204706119475        0                        
2.208943399921183        3.334751723283855        0.5415815409177915       
3.551673826975756        1.840003539881211        0.974314089180332        
3.333412930518485        2.210963191609523        1.12951633403599         
3.732715622100612        1.437648804307243        1.126292066649055        
3.545044513510534        1.059556226553766        1.05791290165221         
3.966579050758652        0.51599697193671         0.98400302806329         
3.663643621886916        0.5174148316006372       0.9825851683993627       
3.873912636089518        0.9963939421463575       1.062774193769134        
3.934409268020588        0.7214039864830966       1.416522641738249        
3.597327260257883        0.8655845323280189       1.472321771720717        
3.7                      0                        1.500000000000001        
4                        0                        1.500000000000001        