% Model:              NotchShell.mph        
% Version:            COMSOL 6.2.0.290      
% Date:               Jun 25 2025, 22:34    
% Dimension:          3                     
% Nodes:              868                   
% Elements:           3041                  
% Expressions:        0                     
% Description:                              
% Length unit:        cm                    
% Coordinates
4.318589725660532        3.832788456780666        0                        
4.232004342987375        3.818393702236187        0                        
4.297518076538697        3.74450450597096         0                        
4.275156513709761        3.853105451354365        0.04850009396871636      
4.829980960494507        3.130488994341393        0.04266419718541415      
4.7736309320709          3.114869596093462        0                        
4.808595660404974        3.191313516838521        0                        
4.864101014797701        3.109934461961883        0                        
4.82687659432402         3.031703682660706        0                        
4.907651653499826        3.188193993970746        0                        
4.75468936575261         3.277413116514211        0                        
4.777229667488512        3.24377992828822         0.07035723880825408      
4.718953284123486        3.197101111268431        0                        
4.843960798446699        3.272610189355341        0                        
5.593097702168416        1.783063068406055        0.06740456915084959      
5.587005339369094        1.740339564736787        0                        
5.554915773733021        1.832366270673358        0                        
5.642481516023333        1.812959709725135        0                        
5.706515884342723        1.63346012258108         0                        
5.656225777162115        1.568305889284177        0                        
5.706810839139202        1.60538941499737         0.08413080386830142      
5.618053647927978        1.65307707452334         0                        
5.730179167821748        1.561988489871257        0                        
5.783525367676595        1.597130126468039        0                        
5.706013624189755        1.5                      0                        
5.60255222906838         1.499999999999999        0                        
5.719247172701033        1.526865531327857        0.06789457810498169      
5.809475019311126        1.499999999999999        0                        
5.653040425927484        1.449446202051164        0.05055379794883602      
5.731683506262866        1.44834164765834         0.05165835234166027      
5.002323423967629        3.210635470346336        0.04266419718541082      
5.004735922764509        3.174068261780385        0                        
4.949021437995088        3.260016838000532        0                        
5.047998405033735        3.243095648194108        0                        
5.101629625684033        3.1580583343095          0                        
5.288237562587526        2.71275740661217         0.04624004485658807      
5.255957404685173        2.737729005153732        0                        
5.301338500215934        2.648118038867104        0                        
5.208179759839147        2.663457787110028        0                        
5.34801431480855         2.720058614528186        0                        
5.301688758122473        2.809286337106073        0                        
5.4682824338273          1.85444187631479         0                        
5.50051266077852         1.873440276157119        0.04972167300252518      
5.501119266576567        1.762261474590515        0                        
5.521302514590825        1.9258457105996          0                        
5.609910514155149        1.907809562777499        0                        
5.434877862906636        1.946767093482984        0                        
5.467563745111645        2.28244960293066         0                        
5.428943083354932        2.375807616320966        0                        
5.415607794148057        2.309342898867209        0.06648627880476878      
5.518182810166777        2.35576699074764         0                        
5.378207208592535        2.300043017179565        0                        
5.417083596336826        2.209281297370612        0                        
5.32854798330218         2.22779688821825         0                        
5.365410244121684        2.23533753481585         0.06648627880476433      
5.36611658427084         2.134653043240897        0                        
5.277236069778406        2.154246843755319        0                        
5.595100418365281        1.947976581825563        0.07766229017448724      
5.577536722917972        2.002153912774136        0                        
5.663569288275879        1.980895975514142        0                        
5.647101064975098        2.027375042254664        0.06615009945319439      
5.629584571415826        2.075514604588875        0                        
5.511514102782093        1.958811718717979        0.06726960059425525      
5.53859007193029         2.051620115693455        0.07579048311681437      
5.543080862044189        2.096338153248793        0                        
5.489360524267547        2.022246006729679        0                        
5.454482021233237        2.116352513874353        0                        
5.506587931540298        2.189637058655944        0                        
5.454430218240739        2.216257620034698        0.06648627880476711      
5.55688157131622         2.262976639069997        0                        
5.542813518495486        2.297219688924785        0.06507508859111721      
5.525358847483569        2.138538623076288        0.1037286364264206       
5.594019044234131        2.169550432796781        0                        
5.615916322327534        2.112222493160977        0.09392931855118358      
5.576627270311799        2.213871786715474        0.08224955703617975      
5.39850013411796         2.153764253888737        0.07939142863288341      
5.36499321953957         2.085005851991473        0.0721956989662398       
5.313763565361092        2.062500423219826        0                        
5.402491651782219        2.040632324726361        0                        
5.33148630496118         2.016247450094204        0.06499996929959173      
5.348695601280656        1.970134761445175        0                        
5.287776453950189        2.318635422765173        0                        
5.338238428637561        2.39321163385589         0                        
5.315866118792761        2.280552525981949        0.06217652903384831      
5.239123220480987        2.245346099147727        0                        
5.225117007374816        2.277751579791447        0.06279250383568025      
5.199437340053413        2.335771170357226        0                        
5.299995082026431        2.097630122422835        0.09096953359505888      
5.259530162035199        2.197121406441159        0.08082442477376439      
4.530607708012463        3.695906862914164        0                        
4.46838033393009         3.773967135324257        0                        
4.447042549420298        3.681430584389009        0                        
4.518949399751549        3.757576069703886        0.06030699751357561      
4.55246992587599         3.792693968997779        0                        
4.616013298114408        3.716404273413165        0                        
4.523450507672002        3.855538317887764        0.05072256329703984      
4.488121394009893        3.870547874584976        0                        
4.56927311071883         3.88866383329146         0                        
4.251487553759526        3.905876637824907        0                        
4.336723522155642        3.925091787928773        0                        
4.35397744019797         4.019585369333157        0                        
4.379489082116148        3.976600401177821        0.0843610131610706       
4.267990961998286        3.999052606653986        0                        
4.421080493242196        3.945868227189036        0                        
4.436414416024891        4.039582057081756        0                        
4.211314696937502        4.004447615347897        0.05506449964604477      
4.184368507916484        3.979951915049437        0                        
4.199977680217247        4.071934322011911        0                        
4.113752341991476        4.051434996030831        0                        
4.285088477004439        4.093251148516886        0                        
4.035048250109625        4.180144590711239        0.06026336491223307      
4.057272007447884        4.213692992206469        0                        
4.044280991172772        4.124979909726046        0                        
3.968327978712591        4.191741634324782        0                        
3.957443890326996        4.102267998461956        0                        
4.129173881502787        4.14515434611466         0                        
3.980730017397429        4.284675678794242        0                        
4.368106338774679        4.113349627840953        0                        
4.298570831890736        4.185961314178976        0                        
4.32960071835821         4.153860568145261        0.07767769488062792      
4.083585996188527        4.239906644110619        0.07621723216956923      
4.144411643623412        4.235201178105185        0                        
4.072758735183276        4.305902777879212        0                        
4.155899134168408        4.327638922477064        0                        
4.227828279698011        4.257397560282056        0                        
4.17154181121504         4.20726243281671         0.08138453373305211      
4.215285235254961        4.1656707776337          0                        
4.267225718321132        4.217912359082238        0.09861582870098473      
4.187051030595619        4.297511334154706        0.09850881989393268      
4.120297032515158        4.361553893264049        0.06674924853616926      
4.082803847273826        4.396665957090875        0                        
4.000095217313126        4.375047877471067        0                        
4.052036155612343        4.425042710936284        0.0983853620193198       
4.00856287098617         4.464459220450363        0                        
5.418883630173771        1.996093631990171        0.1065672127152556       
5.448672258494422        1.912179617624755        0.1112329554011793       
5.382022661766104        1.877177920317522        0                        
5.363676835692203        1.928981804543232        0.08792670961384641      
5.413735231046454        1.783657961723021        0                        
5.479722806966214        1.821034841714636        0.09944334600505091      
5.50310841616649         1.752386899802163        0.09856122880723352      
5.443823793350714        1.689602947547831        0                        
5.530567086837626        1.672291597023799        0                        
5.39815311323788         1.830284941215488        0.08166460790707708      
5.425777932635784        1.746692252723002        0.06434749082159297      
5.075725407304606        3.048881245394722        0.04437591125201702      
5.110609186692278        3.001498372267866        0                        
5.058279418820052        3.087160825237236        0                        
5.15382930186728         3.072134857341279        0                        
5.013900917914368        3.014717819248652        0                        
5.065600665874533        2.926669284326771        0                        
5.102671132374239        2.972890435602608        0.08356473848884273      
5.160038088841828        2.913573191567814        0                        
5.204582379938156        2.985349086251343        0                        
5.253979669771641        2.573972188937081        0                        
5.160868686244354        2.589846765933467        0                        
5.240900537458972        2.608838625253383        0.08003945699015304      
5.206441794655047        2.500574023117951        0                        
5.114743035284849        2.840424148516241        0                        
5.151752505106487        2.850126725966994        0.07273917904079054      
5.208553130768382        2.826100138047475        0                        
5.161874481786818        2.75246999350569         0                        
5.253873806251343        2.897724890001585        0                        
5.319881617884753        2.58753751230302         0.07801416638851812      
5.345737614421751        2.558182245998083        0                        
5.392838484324737        2.630067271076451        0                        
5.296540042182754        2.484387357064018        0                        
5.388027322340015        2.467121651259113        0                        
5.363226028946793        2.497039318499024        0.07801416638851923      
5.436149280702315        2.539337854277817        0                        
5.275637848185242        2.371260062940115        0.06217652903385108      
5.248091442087145        2.409211962134583        0                        
5.301110166561837        2.442507973712788        0.05001131456802144      
5.374608336146248        2.404165112928799        0.08734466838480227      
5.477934717972567        2.44789591165923         0                        
5.455542370411448        2.310239720522332        0.1154944145446513       
5.50881223588171         2.377601259631219        0.09801627147976777      
5.303184254283342        2.333308163745646        0.1243530580677011       
5.251651686858492        2.489523497416942        0.08138835235225518      
5.158191269220938        2.42549535279382         0                        
5.190408770051759        2.355770956559611        0.0954298299019124       
4.878674293825809        2.947628325989711        0                        
4.918334817710574        3.025211740382752        0                        
4.856923506277954        2.983336061218156        0.08100604593145211      
4.969566924146301        2.939691549758578        0                        
5.115791478766107        2.677804727079907        0                        
5.161919457033193        2.630139738203747        0.08206474759178796      
5.071069919242334        2.602734232988302        0                        
5.115397848708826        2.514491941867512        0                        
5.186454941662037        2.539524001078099        0.1336345175076848       
5.138926590626369        2.466056263785           0.1041824303619515       
5.095378103699884        2.554823277711348        0.07164940547040033      
5.021886500786242        2.853710229689344        0                        
5.026265332083828        2.916397744966325        0.07295073540305731      
4.929008053519234        2.862668481100025        0                        
4.901350053516896        2.909771065374374        0.1007355064416432       
5.069286384756181        2.765232045552236        0                        
4.977861896347257        2.776849103011195        0                        
5.06276791076957         2.811226016800939        0.07655090812177247      
5.112281025310374        2.732749104508688        0.07814574712541379      
5.025220321546726        2.690195521566197        0                        
5.049638449723563        2.644078578082239        0.09661310670252166      
5.007120936463689        2.72373639099436         0.0785141156448016       
4.960618020681546        2.807537863126603        0.1270450255384364       
4.394828606052052        4.084786594600331        0.1103960811393012       
4.251361038124774        4.12576439007284         0.09910221235255091      
4.311493073997268        4.050291861841746        0.08436101316107171      
4.09718424691004         3.962710243155964        0                        
4.154638431876714        4.009842624041804        0.1101289992920851       
4.02791839621411         4.03309422241207         0                        
4.066404269353672        4.101134380925051        0.08117894446613484      
4.064482035716725        3.996246461535628        0.09325642886173935      
3.995263710810131        4.065448054161269        0.06411145402582197      
4.204987042914317        3.929739004506148        0.06107505282126836      
4.165219939397458        3.891136447934694        0                        
4.198659388891134        3.855030393664403        0.06708560599649083      
4.136155505862083        3.922017036083189        0.09973126875970018      
4.890724285838883        3.243631324775333        0.05199284304327923      
4.891728137327788        3.343457555202919        0                        
4.963927588360998        3.050460779386756        0.07357283299462226      
4.959827265987538        3.098676477143953        0                        
4.956648442901526        3.178175292498568        0.08532839437082497      
4.886330988918119        3.14610839258932         0.08532839437082386      
4.871627247598036        3.06472222690374         0.08316722015113688      
4.804504680601442        3.067040067243795        0.1167876869704237       
4.746031595008573        3.156767983108732        0.08228753118470822      
4.318308684432147        3.887817200472546        0.09700018793743161      
4.401749298820553        3.849620591913635        0                        
4.382104550830353        3.817107912374735        0.08224238921757         
4.383541469981421        3.757231781624006        0                        
4.259473712065685        3.787728038840878        0.1009145082151808       
4.434919241199112        3.727692448566545        0.08993921061092648      
4.36174226135592         3.669491698013945        0                        
4.510564464637005        3.605262791316154        0                        
4.489562690569804        3.659923844433757        0.0603239319852933       
4.424658018743552        3.593378117240088        0                        
4.332527811405939        3.703944217100746        0.1062364475556676       
4.392210577773053        3.632972094649022        0.07843329462777493      
4.59747612537663         3.619854821959355        0                        
4.55897339850187         3.587923367901082        0.0630440675120192       
4.57269949928809         3.523796562808096        0                        
4.486246470006093        3.516186602524322        0                        
4.627690666151127        3.513273673650804        0.06576420303874954      
4.659630274912375        3.535894081514532        0                        
4.631972222172195        3.442764957154139        0                        
4.720525904562144        3.449629514079229        0                        
4.546488736448048        3.437939992741589        0                        
4.575715794203435        3.398944684851052        0.07001682430759493      
4.605365939373916        3.358661126766823        0                        
4.452513462984188        3.558809332058202        0.1110234495230161       
4.520609153927505        3.471900470553102        0.1031734188833794       
4.867417193525316        3.35822976410211         0.05199284304328034      
4.7978269530345          3.370234338015604        0                        
4.861037468872698        3.417390872624303        0                        
4.936501544913259        3.410416310864917        0                        
4.741578666374867        3.487691003117947        0.06576420303874732      
4.742207540576958        3.555783135900812        0                        
4.800475499735569        3.472631221742378        0                        
4.819459430260582        3.57390601610135         0                        
4.847238371907699        3.53613916099262         0.07394431428240422      
4.878666012733717        3.492651921727327        0                        
4.662859627538814        3.278373273166068        0                        
4.69097897541028         3.238011156907695        0.1107721664913691       
4.694291464827419        3.36323301151819         0                        
4.629794413168369        3.324906568882042        0.1044331699932549       
4.656238123091264        3.413828676687775        0.117980788035379        
4.768456495210677        3.323403108802698        0.08433421255885255      
4.751374764615444        3.409511307585204        0.084334212558852        
4.873796918177935        3.299068655579919        0.1039856860865579       
4.992950693561705        3.327222930033213        0                        
4.799769969224411        3.210146740062224        0.1407144776165048       
5.018681064708868        3.288288364899381        0.08276370425214952      
4.901834577035048        3.460060372216592        0.1079910804027207       
4.963847615551332        3.370492078255837        0.1097466676552555       
5.660270254803876        1.753888132759158        0.0601136497633903       
5.670945376365207        1.719659072365525        0                        
5.726761354066446        1.790017649948413        0                        
5.739050021791162        1.750229941287393        0.06697394234128518      
5.755951234514651        1.693811621049529        0                        
5.695964460573136        1.885721379368636        0                        
5.678686733948467        1.93714144493315         0.08805497975471532      
5.713543879353513        1.831779555159957        0.08827554373649515      
5.623605780325077        1.863578492933119        0.1114073724625009       
5.5930637242183          1.767103342738482        0.1330858375573413       
5.573259530725231        1.655193873817751        0.08315871317648883      
5.563760852618152        1.580697312504796        0                        
5.472278832907895        1.595040939678104        0                        
5.499090833947008        1.499999999999999        0                        
5.578027078689863        1.47941628309305         0.09668711114812269      
5.477013600815718        1.57870897143192         0.09232198479634024      
5.452046874513369        1.662884505342744        0.09933222942291764      
5.497246181602692        1.506746302087588        0.1366195470014503       
5.52155795710957         1.415061389854663        0.08493861014533671      
5.634496200270155        1.543771176331433        0.1084356121509056       
5.589862005048484        1.445993446959713        0.1583397425346334       
5.677500998201998        1.694163045949546        0.116645684347132        
5.629239287336581        1.644280185908242        0.1643852702809312       
5.764145153241755        1.665722261470854        0.09970547242216354      
5.787521570034524        1.582590937793187        0.09491294934178995      
5.70527773453653         1.565021918023482        0.1593068795895769       
5.694924779625131        1.46263357586155         0.1416996136327942       
5.806473185792431        1.511578361406876        0.1377601918910354       
5.830776379339378        1.41493735331369         0.08506264668630942      
5.687492977612295        1.36071191510375         0.1392880848962502       
5.458671126917066        2.490564098384533        0.10418560863871         
5.416861289717739        2.580235215626181        0.07430432492971872      
4.963621013873706        3.235285344058069        0.1267102464968961       
5.040841627916936        3.096264118521584        0.08875182250403237      
5.077902800026441        3.196076212089385        0.1213241580987545       
5.134864709619064        3.103733947023926        0.07654350726277293      
5.228460810366502        2.70545619869615         0.09248008971317169      
5.190106657736494        2.777791462331572        0.08260963437698111      
5.374393075024359        2.667564258856798        0.1131935947175466       
5.179076932664652        3.029383126238887        0.09417874157462369      
5.232936287095601        2.935366725845018        0.1080111457233535       
5.280546982114878        2.848828455642327        0.07188319484602912      
5.323966922650516        2.766835052279625        0.1016353140564868       
5.534099281816397        2.006902078138118        0.1515809662336249       
5.533667681296643        1.895377430706275        0.1345392011885094       
5.325576581632263        2.184313248096232        0.1294221387598138       
5.402272504941185        2.242878181413449        0.1329725576095331       
5.648596655729815        2.023204344814914        0.1618641456018505       
5.474090424655339        2.063205459437107        0.1252077158166626       
5.481418605693472        2.182395468816301        0.1714150317754659       
5.5566844608507          2.054992437558258        0.2358923318729945       
5.547275051234593        2.286425049274575        0.1640868406365886       
5.600949332841145        2.151596284377328        0.202706261368964        
5.379916671899091        2.098247210406861        0.1587828572657624       
5.332264526983145        2.014188425713245        0.1564861130821404       
5.231760172420433        2.262451214562495        0.1613614477505998       
5.285742919142839        2.133288961376618        0.1923579987148621       
4.532082831719306        3.638417104478506        0.1206478639705883       
4.648798926543593        3.604948120231554        0.05575301830668068      
4.680496580222969        3.636803419848376        0                        
4.792861123054376        3.609498892521501        0.09692393820267875      
4.758898959518759        3.654156081909671        0                        
4.630301694863475        3.681932525169876        0.08096785036600164      
4.697002489237766        3.733380289294902        0                        
4.727885475557882        3.694198009041857        0.09122691307544728      
4.673388506957727        3.762903116349851        0.07487219855790428      
4.633787909582744        3.811556814380884        0                        
4.42855849337066         3.899506601830944        0.09290306987757514      
4.503475982811167        3.96467952215047         0                        
4.477627904625172        3.822412802484067        0.1014451265940797       
4.469611786574652        4.002820315391754        0.1132259074936631       
4.534507416113702        3.929152897662527        0.08311219786506063      
4.569518465573005        3.741185004083516        0.1206139950271546       
4.606954099426708        3.843952903688526        0.1205801260837153       
4.25451281803394         3.958526488570357        0.1117579866572938       
4.337897670990099        4.007332575166607        0.1687220263221401       
4.380667631679288        3.876984043125465        0.16448477843514         
4.467134415240447        3.774277730383161        0.2028902531881605       
4.008017985682144        4.312950775916403        0.06783191577058757      
3.896655263071959        4.258349860810816        0                        
3.905094045133501        4.357454767106653        0                        
3.82674993277463         4.325092919532604        0                        
3.913384124833811        4.2957548312183          0.07540046662894319      
3.948581008227818        4.393897908534575        0.06066025631691731      
3.861908365958572        4.368920429565347        0.06066025631691897      
3.821207572567174        4.42255720881945         0                        
3.92687647303949         4.436108771690362        0                        
3.885782232266026        4.170211184064565        0                        
3.92659474294156         4.131809981679179        0.1032004348622584       
3.79059611432851         4.350059472805752        0.06470380083973383      
3.758900055389209        4.371786138232633        0                        
3.738983471691837        4.302324234963732        0                        
3.81295492504853         4.236903391978843        0                        
3.844837322239409        4.207995480690881        0.0935430735452969       
3.777060284769147        4.268936121004811        0.07634005885475859      
4.173121357891342        4.09766821200042         0.1205267298244695       
4.088527547534568        4.077288852124057        0.1623578889322736       
3.930389038145286        4.229424577526314        0.1146034525432371       
4.101768521506661        4.168547547097697        0.1205267298244684       
4.015940754051162        4.250853674361744        0.1356638315411796       
4.009937245614477        4.153881583304718        0.1699264397906286       
4.19867197880667         4.179323687528238        0.1627690674661009       
4.323931343511168        4.15976174036467         0.181541244986041        
4.109899984929169        4.266120296014772        0.1524344643391429       
4.224222599722001        4.260979163056057        0.2050114051077351       
4.118031448351675        4.363693044931851        0.1843421988538174       
4.02407221747367         4.348426423278817        0.1675715660558541       
3.97184142501721         4.497163071817305        0.113233423588206        
3.933196657277339        4.530999268882403        0                        
3.866881089802233        4.500355581851468        0                        
4.015388650951915        4.458324122560692        0.208058792970488        
3.831765396020998        4.491366306798056        0.08645474700827217      
3.792446897150583        4.519662214401969        0                        
3.899821266493933        4.55975811742264         0.09098539064894884      
3.728168136181929        4.443057770090072        0                        