% Model:              NotchShell.mph        
% Version:            COMSOL 6.2.0.290      
% Date:               Jun 25 2025, 22:01    
% Dimension:          3                     
% Nodes:              835                   
% Elements:           2899                  
% Expressions:        0                     
% Description:                              
% Length unit:        cm                    
% Coordinates
4.67079936007022         1.784257400565241        0                        
4.656324757512241        1.821713411208956        0.07034487969990511      
4.634054982687973        1.8776240107792          0                        
4.583398137481178        1.807903984796234        0                        
4.400389211830086        1.852358568709649        0                        
4.438086590961099        1.760906054061983        0                        
4.448017280993136        1.835834491940669        0.07410178573823256      
4.349619450031308        1.780663330109152        0                        
4.491555220841166        1.830790481094998        0                        
4.452399798377559        1.923806850410532        0                        
4.618111792673441        1.713439944841135        0                        
4.705664284237866        1.69017284626032         0                        
4.684622649300812        1.74765861473511         0.08211279134146487      
4.5284275591582          1.737576171539055        0                        
4.548283533983842        1.736856204023834        0.08135525239393426      
4.474611932087845        1.670523534895783        0                        
4.566026773481795        1.649252039302831        0                        
4.608431024846556        1.566470382519717        0                        
4.593095445991594        1.59779903910218         0.06374382403152301      
4.514412521613561        1.582833169701902        0                        
4.659930873600962        1.631652045081002        0                        
4.68613902454468         1.560352371287812        0                        
4.738634813729755        1.59540787152004         0                        
4.714811877287422        1.664496609125248        0.09571014266042677      
4.743317723287338        1.58143510013792         0.09520271298211702      
4.769696007084728        1.5                      0                        
4.79546685702087         1.415450102546742        0.08454989745325843      
4.680394353192006        1.424535834454778        0.07546416554522262      
4.766719461873953        1.50943220178718         0.1449762028570839       
4.41953977845155         2.090016532234694        0.04859432138264008      
4.463316696671469        2.085113921723062        0                        
4.411769899753074        2.014756479767864        0                        
4.370770436292924        2.107909764985379        0                        
4.419593345317851        2.17428619957666         0                        
4.5126945458652          2.153040940319318        0                        
4.387640018904539        2.15504946542036         0.07452467472640945      
4.325696083947308        2.195629588933391        0                        
4.374166026791444        2.261650291285783        0                        
4.544512476769503        1.901498360758836        0                        
4.489797809069415        1.932130986452325        0.08146803740372577      
4.504309950773527        1.993945441022075        0                        
4.595446093552281        1.9702351532466          0                        
4.361097142641002        1.944639558000139        0                        
4.377187057473845        1.999477165325092        0.08146803740372355      
4.31929097357836         2.036190718504377        0                        
4.270053552769306        1.963825930776368        0                        
4.468309120610171        2.072123299484009        0.09718864276527905      
4.554987634124305        2.062053304311839        0                        
4.577115506237021        2.012464569269387        0.08479324119116838      
4.536450222565619        2.102526903082182        0.116403840977814        
4.575985053834209        1.820511913190322        0.1092742255881834       
4.618866194760132        1.914699734919827        0.1192021527865916       
4.663608470977965        1.802985310373484        0.160833515405745        
4.526974668064726        1.93873167353282         0.1410691137970205       
4.310808672742787        1.872666958923599        0                        
4.381390700000085        1.898037109641755        0.1147499984944794       
4.293940810801696        1.911039589681927        0.095078920312337        
4.32769825863084         1.833310607137697        0.06656392218151508      
4.455378568801049        1.715096608352864        0.08229374708499715      
4.38646846108256         1.687856594143453        0                        
4.360381836177313        1.754157986823014        0.0938566830909543       
4.397939096950466        1.657748985677421        0.1025598027177765       
4.421338282344234        1.594288300836927        0                        
4.427958015915577        1.575813380222729        0.09341791410641842      
4.454211490264017        1.5                      0                        
4.497595852145511        1.614098403546013        0.08780882699889858      
4.495645350156182        1.819310415171688        0.148203571476464        
4.490006969911362        1.663018618685581        0.1619860728603933       
4.628769618515284        1.681155922299521        0.1170413947575577       
4.56813950880948         1.73613623650861         0.162710504787868        
4.693778046760142        1.722918352027323        0.1715343566628846       
4.539355299580126        1.512991319929954        0.1230613607719311       
4.559372995870921        1.5                      0                        
4.452055128699368        1.506388107700551        0.1324056396844259       
4.596291243304912        1.438916095992595        0.06108390400740515      
4.591956931871628        1.388247208635535        0.111752791364465        
4.48172498894811         1.415677473835206        0.08432252616479445      
4.664534501477825        1.499999999999999        0                        
4.668763197496944        1.500163137008188        0.1282747956679081       
4.576721794153539        1.6080866432616          0.1587600685743951       
4.661819587921376        1.614358522025995        0.1386765290033287       
4.687362664829736        1.330593193182393        0.1694068068176072       
4.680777155476657        1.757932086506148        0.2516315385515178       
4.729789580746015        1.621447045655957        0.2432392390253363       
4.785008688687354        1.450410924250962        0.2386369960911539       
4.829572007001908        1.294308936919973        0.2056910630800274       
4.337488833034795        2.086001724884218        0.07452467472640723      
4.278719526176427        2.128933886211193        0                        
4.227371513663175        2.054098695857033        0                        
4.246600788695036        2.014046112047758        0.09951132307244315      
4.20574917137855         2.098016660431617        0.06573700535316584      
4.182779990324272        2.143443701150793        0                        
4.311373773020779        2.221168765534415        0.07705693595194463      
4.223100130676386        2.217955174824989        0                        
4.280967792336953        2.281385628890136        0                        
4.468581996632832        2.243160565431849        0                        
4.488050801648144        2.203950998054506        0.1095566552980953       
4.445299124674861        2.288955152938762        0.07786763275657138      
4.4226681572525          2.332375889787412        0                        
4.339390403640598        2.290174726601323        0.1057122303892338       
4.334043119122742        2.352436813208536        0                        
3.061616997868383E-16    5                        10                       
2.87791997799628E-16     4.699999999999999        9.999999999999998        
0.9058205173135381       4.917264401108998        9.050063865891437        
1.294143979643245        4.829609585909379        9.999999999999998        
3.061616997868383E-16    5                        8.63798385345064         
1.450693789874244        4.470513116142556        10                       
0.958087874102051        4.601311511460467        8.987314947905233        
2.877919977996279E-16    4.699999999999999        8.621912860645269        
4.355686692491225        2.13581273126406         0.1490493494528156       
4.392551131871194        2.225329470094972        0.1318352636009923       
4.435204749218576        1.953247808316561        0.1828663037911749       
4.356144116076416        2.010759194793581        0.1946317933823261       
4.269868237827268        1.964236551842435        0.213047707364184        
4.471701843569644        2.06417142377411         0.1958461162730596       
4.511519947728432        2.155501742344098        0.2258184962536636       
4.576225471936958        2.014487634609695        0.2307932293025633       
4.636660390314443        1.871197591086819        0.2802742112402207       
4.474839805749617        1.869095447109113        0.256634437262302        
4.326399561922375        1.836373281933138        0.1898344444826477       
4.372424505552232        1.723921095423548        0.1772049901663358       
4.298687154104864        1.900339114772367        0.3061806539422546       
4.419468874154123        1.59946705823624         0.2315178454643357       
4.509158566522792        1.526681697950015        0.229739895758786        
4.518992207040085        1.759980360045491        0.3091482808213991       
4.624390893893052        1.690713702850724        0.2761937599233699       
4.593218569360023        1.442324973110488        0.2210593074427897       
4.471240031895921        1.448451786277802        0.2336980307323155       
4.518134105009986        1.294784080711362        0.2052159192886381       
4.622326981946864        1.512082293398792        0.3144180790155032       
4.647860118647657        1.38165651595432         0.3002017677627111       
4.689980651384005        1.243767565216587        0.2562324347834133       
4.6861515516879          1.743554884313392        0.3781664653452654       
4.740239139926691        1.590639147106305        0.4546441707517018       
4.814509839628286        1.349257204584218        0.4334962469669723       
4.681960347437967        1.254853862071221        0.4955593828782046       
4.56428843918401         1.12128166405433         0.3787183359456707       
4.87281146332541         1.120584562139952        0.3794154378600481       
5                        0                        10                       
4.699999999999999        0                        10                       
4.829609500495492        1.294144298429414        10                       
4.908147060450308        0.9539876482392213       8.971186965390839        
5                        0                        8.450901638260417        
4.470513905727941        1.450691356649284        10                       
4.577734121316642        1.065058831489294        8.993763896247607        
4.699999999999999        0                        8.44745309362918         
3.535533593709179        3.535534218156269        10                       
3.804067654351614        2.760266158238022        10                       
2.761517494179266        3.803159361076619        10                       
3.378243367677278        3.267640088618156        8.81919482139228         
4.588797399807218        1.985683364366665        8.880145329478447        
4.329926045024209        2.50033552367874         9.999999999999998        
4.165062153685901        2.177672439999497        8.87387962806587         
3.916015083516496        3.108830305061904        8.917560530540477        
4.264612701948255        2.361516669824326        0                        
4.19006500250191         2.319070452500669        0                        
4.243558232298079        2.282889197318055        0.07705693595194241      
4.13629817288378         2.231819997029335        0                        
4.259470945652949        2.158468852326695        0.1255179435401405       
4.163255198814674        2.181124973389326        0.1019865376274609       
4.206647178500675        2.096215522223874        0.2032313059487706       
4.297051462094244        2.246707942135438        0.1541138719038854       
4.29229257658653         2.422593032727383        0                        
4.207186121438458        2.414079973437157        0                        
4.286229675410002        2.355019983107674        0.07958919717747537      
4.374973313537798        2.420651955791512        0                        
4.400736250103102        2.373503835477939        0.1072496304957143       
4.444619686742415        2.290274184507556        0.205256741583264        
4.331834730420961        2.34120528106135         0.1862671999926363       
4.346923159632016        2.470679874903831        0.1097933255806066       
4.325517794345453        2.507953863450234        0                        
4.241660604473656        2.505126760727963        0                        
4.300574203757422        2.550502208973013        0.07749849536632269      
4.274321928532186        2.594246712769659        0                        
4.238416231697263        2.357603153006816        0.1591783943549552       
4.12379384432467         2.400534423311098        0                        
4.181105038010967        2.379068788158959        0.07958919717747759      
4.157376341986878        2.495745603361717        0                        
4.087948848194633        2.319188610027456        0                        
4.110214464646847        2.279503686026375        0.09993626062852423      
4.062932501666159        2.362748291059537        0.0665827151154319       
4.037755240263843        2.405510931695047        0                        
2.950712901010712        4.036495184663169        8.833053840241451        
2.500334807330302        4.329926458705617        10                       
1.895777020280173        4.626665050484812        8.918978312088402        
1.064441696592058        4.885382674321042        7.995629298169344        
3.061616997868383E-16    5                        7.267938564053752        
2.163580699389721        4.172399616195491        8.751987745667842        
1.078832722935148        4.574507618960136        7.852778435246808        
2.87791997799628E-16     4.699999999999999        7.23416832841389         
4.340602948689521        2.16371569754274         0.29809869890563         
4.47455871887837         2.231215872861602        0.3929660918624972       
4.39973551918016         2.040060260128114        0.3301311970012477       
4.454034261343051        1.918880479046538        0.3650653030481399       
4.240202558336962        2.027481754362462        0.3394789018825822       
4.539308089228379        2.09634970152067         0.404693749083524        
4.60938136858123         1.937421843320712        0.4239499521540285       
4.357207258603516        1.762028633584832        0.3666650230912888       
4.290298569336469        1.919202486958957        0.4221676127364166       
4.511598219698667        1.779421930951352        0.4961213240742179       
4.428600335723488        1.574007327311345        0.4411951925714802       
4.572219254245344        1.606967698617443        0.5295044367519874       
4.500851823509312        1.35363690213177         0.4404812777940392       
4.633478448872574        1.429068663136826        0.5049195669335038       
4.665989180793819        1.796815228317876        0.625577625057156        
3.497588944721477        3.573075926112137        7.90538285828484         
4.764828754074727        1.515390030435295        0.6852938210654685       
4.542662972327121        1.205907591753248        0.6974555618861344       
4.852538318294863        1.20535134690266         0.6890164114935343       
4.61839115265022         0.8720456333275102       0.62795436667249         
4.92350765848081         0.8712477834753818       0.6287522165246184       
3.094154991402713        3.53782488107844         7.760305227436451        
4.848011204136714        1.223432615457379        7.649415394106311        
5.000000000000001        0                        6.901803318493585        
4.700000000000001        0                        6.889076261836733        
4.515401472016173        1.30428123750753         7.676655388095468        
3.849629992488776        2.696358455571303        7.678219291223252        
4.227538419446169        2.669816269353864        7.683563654964204        
4.255462655939835        2.479784020356886        0.09232348981860483      
4.22020310260172         2.574758542143812        0.07979085856102408      
4.191000261942478        2.589343111721301        0                        
4.221406044954716        2.679495603755869        0                        
4.105470522710272        2.582094589627148        0                        
4.139832001446017        2.599014875314611        0.08208322175572103      
4.137355052248038        2.673293526744049        0                        
4.138176760605113        2.22833864077877         0.2157683869174659       
4.166306168415669        2.331790725228436        0.2559773501455054       
4.176847178582324        2.154982052539852        0.3732985058292759       
4.267142281290553        2.305202085829297        0.3064323722269324       
4.269264707406015        2.454441279985808        0.184646979637213        
4.366617998747679        2.435702619987262        0.2184205280813828       
4.396107801975996        2.382065530879825        0.3970963575363967       
4.300113183114761        2.551279406964795        0.2101155649194686       
4.251218469789944        2.6319463372411          0.1097046657882511       
4.160324378394913        2.491799502301384        0.1359545895909869       
4.075044293815722        2.488694223771425        0                        
4.081854017382641        2.548690431339677        0.08208322175571992      
4.020820584206119        2.575378482832531        0                        
3.985740573098426        2.490748353582003        0                        
4.111628440030538        2.42727389668046         0.1012686523532086       
4.015689979905362        2.442178123169493        0.1020865203744709       
4.065470055540787        2.35837936462758         0.2055223280640822       
3.931928070705393        2.574862267238212        0                        
3.957316769634619        2.535674266298536        0.1019912151191954       
2.452040273141253        4.357464687050644        7.411587173289269        
1.257474224286652        4.839293189635722        6.576841876110469        
3.061616997868384E-16    5                        5.887896163521701        
2.215711703050038        4.144951344583806        7.12588796963709         
1.177009894025091        4.550236005897611        6.478335538261348        
2.877919977996279E-16    4.699999999999998        5.841187357707661        
4.34901537241624         2.155079736908866        0.4541406340466853       
4.43242265058826         2.313791141514752        0.5203786521270254       
4.490284454417778        2.19939662598951         0.5349316441100327       
4.420424692204787        1.995517176294183        0.522639643481424        
4.231106333492475        2.046396636695796        0.5313837271519317       
4.550550815073112        2.071831865629408        0.6231116742264309       
4.333268475735661        1.820105578584808        0.6287777651774212       
4.447325256981769        1.520295385315645        0.6981409244623127       
4.67172866280884         1.781839302824564        0.9490418499379821       
4.572360666284327        2.023244408719803        0.8051197268418347       
4.494323457875687        1.375156956855589        0.9727664115571022       
3.596920081417023        3.473062902957411        6.556616892893291        
4.424704717627789        2.328516300523229        6.609658795252842        
4.788710854523991        1.43814058831677         1.021183244704685        
4.592204241403687        1.00082975836752         1.083522419201666        
4.973584431342047        0.5132828179303726       0.9867171820696279       
4.671820281882447        0.5139034933795052       0.9860965066204951       
4.897875670908051        1.005392417082512        1.075344144588782        
4.639584238020642        0.751171151143608        1.445947495599717        
4.942749042237047        0.7544745890119521       1.427406368367869        
4.699999999999999        0                        1.500000000000001        
5                        0                        1.500000000000001        
4.830573595966865        1.290565276903014        5.932227560909334        
4.999999999999999        0                        5.352701470750058        
4.699999999999998        0                        5.333173600954761        
3.340181213767803        3.30653738209515         6.457544746167284        
4.522301097870693        1.280153420570178        6.052697940886727        
4.103088428375999        2.292305684006164        6.627067738677653        
4.051277768301187        2.66642160977085         0                        
4.105929926708328        2.684587941234739        0.0933413193281929       
4.082389476907818        2.757296042290446        0                        
4.16679047246977         2.763665636414945        0                        
4.021227811385678        2.641795621430818        0.08205310364249263      
3.964661080200957        2.660881824001065        0                        
3.995090523113695        2.74873945349393         0                        
4.190632042030973        2.727380261038661        0.1046295350138959       
4.139357556266289        2.80458892199573         0.07036144190079585      
4.110495551181966        2.846721908486724        0                        
4.144694974465907        2.216191230159766        0.5591437375524033       
4.190167545329703        2.586749256909348        0.1811481307473306       
4.088663740949555        2.608686638907927        0.1641664435114365       
4.163272414802942        2.487853401241054        0.2719091791819711       
4.227516530106963        2.363941034057668        0.4473402961838019       
4.096557061303879        2.303957517724952        0.3785506293329211       
4.326213600972744        2.506766019946506        0.3822522922057969       
4.363311549162932        2.441620839717209        0.5758444917077338       
4.258837720221501        2.619599448926979        0.335729881108634        
4.220010712264493        2.681699011517312        0.2263416719036759       
3.98632096606607         2.489828338561129        0.2289673661682406       
4.026431646491116        2.424427395517308        0.3337027934444675       
4.120822875414863        2.694955885773209        0.1952239395943312       
3.905635064838428        2.614577354048743        0.06781809727788246      
3.876340957091757        2.657814064213567        0                        
3.906850650513411        2.612760607974434        0.2118460412584505       
2.480861839348713        4.34112019345967         6.003783658447742        
3.321936360967904        3.736942441847254        5.342343626492641        
1.295688421637399        4.829201954157104        5.206780766649004        
3.061616997868384E-16    5                        4.524071198252575        
2.315178024505784        4.090226242501201        5.801175434076376        
1.252375425295958        4.530072382878089        5.07752887316647         
2.877919977996279E-16    4.699999999999999        4.463074174729748        
3.134303789804917        3.502304920079709        5.243547596020306        
4.45191733661546         2.276056244459417        0.7262124813952714       
4.21049907378684         2.088467751639983        0.766485514042502        
4.09405284243126         2.308404497348877        0.7157675552462284       
4.337255211919501        1.810584774783307        1.05962762530126         
4.680428370360085        1.758860503260118        1.214795512166168        
4.529940068555668        2.11651670801198         1.058612944568159        
4.486781559393843        1.399568232807301        1.527097371679554        
4.230802506160118        2.664640717595764        5.277317842804134        
4.853199518444717        1.202686340725613        4.54500847771944         
4.999999999999999        0                        3.830013654771983        
4.7                      0                        3.798978114039277        
4.798739081273768        1.404315929502974        1.609374320990429        
4.643134435732287        0.7289050773022638       2.103147399661387        
4.699999999999999        0                        2.483357587218213        
4.922923060619448        0.8745447611307551       3.166992992936914        
5                        0                        2.504641924961088        
4.943759527864041        0.7478246657161762       2.207493113642315        
4.534795249106051        1.235164786044834        4.492806256354803        
4.616405466336811        0.8824967820766296       3.116753984047645        
3.962867630281464        2.526990333354555        5.289080861705134        
4.023472633008739        2.773417573792629        0.08205310364249263      
4.025310227452248        2.838622387556156        0                        
3.938612580120762        2.832044350252515        0                        
4.021635038565233        2.708212760029105        0.1641062072849886       
3.907672431779882        2.743997156990474        0                        
3.937874721831748        2.732996588045427        0.0935364342319156       
3.87453095129748         2.822906735009654        0.0909479422700743       
3.84899856534866         2.826540876889204        0                        
3.819002531382231        2.739565149886571        0                        
3.87741708843464         2.91409204569692         0                        
3.852276810654754        2.692575602298223        0.1050197648213386       
3.75993844916339         2.820078267354699        0                        
3.788499620144444        2.781594979173891        0.09987289901087548      
3.966518228720123        2.920698100540552        0                        
4.052543166708563        2.928630259242801        0                        
3.960562282450518        2.864218490845418        0.08202298552926868      
4.084913831550185        2.883310421860605        0.1053566980185455       
4.139397656903619        2.804529735627852        0.2074456942008879       
3.86646647416403         2.988233137585023        0.05286909409328744      
3.904778198852973        3.001542347362913        0                        
3.813973275864122        2.993593103452472        0                        
3.787084721057341        2.905747361322327        0                        
3.829509018512619        2.897067593064315        0.09166076438977599      
3.73223958536719         2.856639227732151        0.07041666389922652      
3.699177101017588        2.8993183603485          0                        
3.992958240864199        3.009358782510473        0                        
3.918959672463941        2.982873171717575        0.1057381881865765       
4.021296274752087        2.971392984891933        0.0987582138409937       
3.963182482094775        3.048472504979682        0.06505347715005549      
3.931766042421467        3.088875970177724        0                        
4.03033904144189         2.417926221171617        0.5473527475965184       
4.331197933567447        2.498144203255905        0.7247114482916117       
4.08492847162044         2.610448829591449        0.286626242878304        
4.144298886748326        2.519303968723773        0.4352209104886973       
4.262166127005532        2.614180541930236        0.536739027532927        
4.185375665734056        2.735439733695701        0.3848165639112816       
3.953952721170446        2.540916739830101        0.390757616214214        
4.006584528437939        2.733044257941844        0.3013433065746368       
3.922966939688433        2.720190050234535        0.1934207256917597       
3.741832093372671        2.935273405733737        0.04618679325474107      
3.726376837288208        2.985398977057349        0                        
3.84338924501294         3.081407857228271        0                        
3.784487085727758        2.971228451118977        0.09237358650947769      
3.752976492715657        3.072832660048007        0                        
3.810444983990431        3.060481257479417        0.05647599943061965      
3.636747027505588        2.977250566233065        0                        
3.824298840811633        2.732167340439966        0.2227352440985286       
3.923734856563171        2.587335458612042        0.552887534249023        
3.873771399972258        2.661558780255843        0.3952409189483774       
3.673025761889317        2.932384993908099        0.1075742853212136       
1.289884886592062        4.519533789009618        0                        
1.107629176268934        4.56762056303693         0.3581405097323193       
1.37580671257764         4.806989010284745        0                        
0.758682594163036        4.638360393701495        0                        
0.8017381174157807       4.935301461052523        0                        
3.555829859327239        3.51512076770014         4.398016123747861        
0.597837934030689        4.661822583993724        0.6345735818446269       